<?xml version="1.0" encoding="UTF-8"?>

<!-- generated on 2024-04-23 12:52:27 by Eclipse SUMO GUI Version 1.19.0
<configuration xmlns:xsi="http://www.w3.org/2001/XMLSchema-instance" xsi:noNamespaceSchemaLocation="http://sumo.dlr.de/xsd/sumoConfiguration.xsd">

    <input>
        <net-file value="C:\Users\mehdi\OneDrive - University of Tennessee\Documents\CUIP Projects\Fraizer street\ITSC\sc1\frizer_Av_current.net.xml"/>
        <route-files value="C:\Users\mehdi\OneDrive - University of Tennessee\Documents\CUIP Projects\Fraizer street\ITSC\sc1\s1_itsc_mean_pm.rou.xml"/>
        <additional-files value="C:\Users\mehdi\OneDrive - University of Tennessee\Documents\CUIP Projects\Fraizer street\ITSC\sc1\edgedata.add.xml,C:\Users\mehdi\OneDrive - University of Tennessee\Documents\CUIP Projects\Fraizer street\ITSC\sc1\ detector.add.xml"/>
    </input>

    <output>
        <queue-output value="C:\Users\mehdi\OneDrive - University of Tennessee\Documents\CUIP Projects\Fraizer street\ITSC\sc1\queue_before.xml"/>
        <edgedata-output value="C:\Users\mehdi\OneDrive - University of Tennessee\Documents\CUIP Projects\Fraizer street\ITSC\sc1\edgedata_current.xml"/>
    </output>

    <time>
        <begin value="0"/>
        <end value="15000"/>
    </time>

    <processing>
        <ignore-junction-blocker value="1"/>
        <ignore-route-errors value="true"/>
        <collision.check-junctions value="true"/>
        <scale value="1"/>
        <waiting-time-memory value="100000000"/>
    </processing>

    <report>
        <xml-validation value="never"/>
        <no-warnings value="true"/>
    </report>

</configuration>
-->

<meandata xmlns:xsi="http://www.w3.org/2001/XMLSchema-instance" xsi:noNamespaceSchemaLocation="http://sumo.dlr.de/xsd/meandata_file.xsd">
    <interval begin="0.00" end="732.00" id="DEFAULT_EDGEDATA">
        <edge id="-1656" sampledSeconds="111.36" traveltime="6.27" overlapTraveltime="6.63" density="1.73" laneDensity="0.87" occupancy="0.41" waitingTime="0.00" timeLoss="10.95" speed="14.01" speedRelative="0.66" departed="0" arrived="17" entered="17" left="0" laneChangedFrom="0" laneChangedTo="0"/>
        <edge id="-2239" sampledSeconds="1925.53" traveltime="29.51" overlapTraveltime="30.16" density="32.26" laneDensity="10.75" occupancy="5.32" waitingTime="1052.00" timeLoss="1569.78" speed="2.87" speedRelative="0.16" departed="68" arrived="0" entered="0" left="66" laneChangedFrom="38" laneChangedTo="38"/>
        <edge id="-9039" sampledSeconds="199.85" traveltime="12.22" overlapTraveltime="12.58" density="1.60" laneDensity="0.53" occupancy="0.26" waitingTime="0.00" timeLoss="18.01" speed="13.96" speedRelative="1.56" departed="0" arrived="16" entered="16" left="0" laneChangedFrom="0" laneChangedTo="0"/>
        <edge id="-9040" sampledSeconds="824.38" traveltime="8.45" overlapTraveltime="9.06" density="21.28" laneDensity="10.64" occupancy="5.01" waitingTime="163.00" timeLoss="485.18" speed="6.39" speedRelative="0.46" departed="0" arrived="0" entered="91" left="91" laneChangedFrom="11" laneChangedTo="11"/>
        <edge id="-9045" sampledSeconds="1417.05" traveltime="11.37" overlapTraveltime="12.67" density="23.26" laneDensity="11.63" occupancy="5.38" waitingTime="181.00" timeLoss="781.78" speed="6.96" speedRelative="0.50" departed="0" arrived="0" entered="112" left="111" laneChangedFrom="47" laneChangedTo="47"/>
        <edge id="-9052" sampledSeconds="319.09" traveltime="2.50" overlapTraveltime="2.87" density="13.44" laneDensity="6.72" occupancy="2.91" waitingTime="0.00" timeLoss="51.61" speed="13.02" speedRelative="0.93" departed="0" arrived="0" entered="111" left="111" laneChangedFrom="27" laneChangedTo="27"/>
        <edge id="-9068" sampledSeconds="386.74" traveltime="28.76" overlapTraveltime="29.44" density="6.25" laneDensity="3.12" occupancy="1.54" waitingTime="210.00" timeLoss="309.60" speed="3.04" speedRelative="0.17" departed="14" arrived="0" entered="0" left="13" laneChangedFrom="0" laneChangedTo="0"/>
        <edge id="-9069" sampledSeconds="2172.97" traveltime="18.76" overlapTraveltime="19.59" density="24.94" laneDensity="8.31" occupancy="4.03" waitingTime="549.00" timeLoss="1285.44" speed="6.33" speedRelative="0.45" departed="0" arrived="0" entered="111" left="110" laneChangedFrom="32" laneChangedTo="32"/>
        <edge id="-9089" sampledSeconds="604.42" traveltime="7.39" overlapTraveltime="7.74" density="8.63" laneDensity="4.32" occupancy="2.05" waitingTime="0.00" timeLoss="98.55" speed="13.00" speedRelative="0.93" departed="0" arrived="0" entered="80" left="77" laneChangedFrom="6" laneChangedTo="6"/>
        <edge id="-9092" sampledSeconds="111.84" traveltime="1.18" overlapTraveltime="1.53" density="9.12" laneDensity="4.56" occupancy="1.80" waitingTime="0.00" timeLoss="9.70" speed="14.19" speedRelative="1.01" departed="0" arrived="76" entered="76" left="0" laneChangedFrom="0" laneChangedTo="0"/>
        <edge id="-E0" sampledSeconds="119.78" traveltime="5.13" overlapTraveltime="5.49" density="2.37" laneDensity="2.37" occupancy="1.10" waitingTime="0.00" timeLoss="15.73" speed="13.49" speedRelative="0.97" departed="0" arrived="22" entered="22" left="0" laneChangedFrom="0" laneChangedTo="0"/>
        <edge id="-E6" sampledSeconds="233.56" traveltime="15.28" overlapTraveltime="15.62" density="1.50" laneDensity="1.50" occupancy="0.73" waitingTime="0.00" timeLoss="23.47" speed="13.97" speedRelative="1.01" departed="0" arrived="15" entered="15" left="0" laneChangedFrom="0" laneChangedTo="0"/>
        <edge id="1656" sampledSeconds="333.59" traveltime="13.39" overlapTraveltime="14.12" density="5.19" laneDensity="1.73" occupancy="0.84" waitingTime="94.00" timeLoss="188.03" speed="6.57" speedRelative="0.31" departed="25" arrived="0" entered="0" left="25" laneChangedFrom="0" laneChangedTo="0"/>
        <edge id="2239" sampledSeconds="376.94" traveltime="5.82" overlapTraveltime="6.17" density="6.41" laneDensity="3.20" occupancy="1.52" waitingTime="0.00" timeLoss="41.13" speed="13.84" speedRelative="0.76" departed="0" arrived="62" entered="62" left="0" laneChangedFrom="1" laneChangedTo="1"/>
        <edge id="9034" sampledSeconds="143.08" traveltime="14.07" overlapTraveltime="14.42" density="0.98" laneDensity="0.49" occupancy="0.24" waitingTime="0.00" timeLoss="12.02" speed="14.23" speedRelative="0.86" departed="0" arrived="10" entered="10" left="0" laneChangedFrom="0" laneChangedTo="0"/>
        <edge id="9039" sampledSeconds="446.20" traveltime="15.45" overlapTraveltime="15.97" density="3.54" laneDensity="3.54" occupancy="1.74" waitingTime="16.00" timeLoss="126.42" speed="11.08" speedRelative="0.80" departed="29" arrived="0" entered="0" left="28" laneChangedFrom="0" laneChangedTo="0"/>
        <edge id="9040" sampledSeconds="1901.07" traveltime="19.92" overlapTraveltime="20.77" density="49.72" laneDensity="16.57" occupancy="8.06" waitingTime="1037.00" timeLoss="1563.83" speed="2.76" speedRelative="0.20" departed="0" arrived="0" entered="92" left="89" laneChangedFrom="29" laneChangedTo="29"/>
        <edge id="9045" sampledSeconds="1029.40" traveltime="9.62" overlapTraveltime="10.19" density="16.90" laneDensity="8.45" occupancy="4.03" waitingTime="88.00" timeLoss="455.80" speed="8.65" speedRelative="0.62" departed="0" arrived="0" entered="101" left="101" laneChangedFrom="12" laneChangedTo="12"/>
        <edge id="9052" sampledSeconds="514.32" traveltime="4.62" overlapTraveltime="5.11" density="21.67" laneDensity="10.83" occupancy="4.92" waitingTime="96.00" timeLoss="269.54" speed="7.32" speedRelative="0.52" departed="0" arrived="0" entered="102" left="99" laneChangedFrom="8" laneChangedTo="8"/>
        <edge id="9068" sampledSeconds="92.75" traveltime="5.93" overlapTraveltime="6.28" density="1.53" laneDensity="1.53" occupancy="0.73" waitingTime="0.00" timeLoss="9.33" speed="13.97" speedRelative="0.79" departed="0" arrived="15" entered="15" left="0" laneChangedFrom="0" laneChangedTo="0"/>
        <edge id="9069" sampledSeconds="991.65" traveltime="9.14" overlapTraveltime="9.57" density="11.36" laneDensity="5.68" occupancy="2.72" waitingTime="0.00" timeLoss="162.42" speed="12.99" speedRelative="0.93" departed="0" arrived="0" entered="104" left="102" laneChangedFrom="20" laneChangedTo="20"/>
        <edge id="9089" sampledSeconds="1264.84" traveltime="17.18" overlapTraveltime="17.76" density="18.03" laneDensity="6.01" occupancy="2.96" waitingTime="325.00" timeLoss="802.56" speed="5.68" speedRelative="0.41" departed="75" arrived="0" entered="0" left="75" laneChangedFrom="14" laneChangedTo="14"/>
        <edge id="E0" sampledSeconds="544.98" traveltime="23.84" overlapTraveltime="24.39" density="10.79" laneDensity="10.79" occupancy="5.32" waitingTime="233.00" timeLoss="436.69" speed="3.04" speedRelative="0.22" departed="24" arrived="0" entered="0" left="24" laneChangedFrom="0" laneChangedTo="0"/>
        <edge id="E6" sampledSeconds="516.39" traveltime="29.06" overlapTraveltime="29.97" density="3.31" laneDensity="1.65" occupancy="0.81" waitingTime="131.00" timeLoss="274.26" speed="7.28" speedRelative="0.52" departed="18" arrived="0" entered="0" left="17" laneChangedFrom="18" laneChangedTo="18"/>
    </interval>
</meandata>
