<?xml version="1.0" encoding="UTF-8"?>

<!-- generated on 2024-04-23 12:52:27 by Eclipse SUMO GUI Version 1.19.0
<configuration xmlns:xsi="http://www.w3.org/2001/XMLSchema-instance" xsi:noNamespaceSchemaLocation="http://sumo.dlr.de/xsd/sumoConfiguration.xsd">

    <input>
        <net-file value="C:\Users\mehdi\OneDrive - University of Tennessee\Documents\CUIP Projects\Fraizer street\ITSC\sc1\frizer_Av_current.net.xml"/>
        <route-files value="C:\Users\mehdi\OneDrive - University of Tennessee\Documents\CUIP Projects\Fraizer street\ITSC\sc1\s1_itsc_mean_pm.rou.xml"/>
        <additional-files value="C:\Users\mehdi\OneDrive - University of Tennessee\Documents\CUIP Projects\Fraizer street\ITSC\sc1\edgedata.add.xml,C:\Users\mehdi\OneDrive - University of Tennessee\Documents\CUIP Projects\Fraizer street\ITSC\sc1\ detector.add.xml"/>
    </input>

    <output>
        <queue-output value="C:\Users\mehdi\OneDrive - University of Tennessee\Documents\CUIP Projects\Fraizer street\ITSC\sc1\queue_before.xml"/>
        <edgedata-output value="C:\Users\mehdi\OneDrive - University of Tennessee\Documents\CUIP Projects\Fraizer street\ITSC\sc1\edgedata_current.xml"/>
    </output>

    <time>
        <begin value="0"/>
        <end value="15000"/>
    </time>

    <processing>
        <ignore-junction-blocker value="1"/>
        <ignore-route-errors value="true"/>
        <collision.check-junctions value="true"/>
        <scale value="1"/>
        <waiting-time-memory value="100000000"/>
    </processing>

    <report>
        <xml-validation value="never"/>
        <no-warnings value="true"/>
    </report>

</configuration>
-->

<queue-export xmlns:xsi="http://www.w3.org/2001/XMLSchema-instance" xsi:noNamespaceSchemaLocation="http://sumo.dlr.de/xsd/queue_file.xsd">
    <data timestep="0.00">
        <lanes/>
    </data>
    <data timestep="1.00">
        <lanes/>
    </data>
    <data timestep="2.00">
        <lanes/>
    </data>
    <data timestep="3.00">
        <lanes/>
    </data>
    <data timestep="4.00">
        <lanes/>
    </data>
    <data timestep="5.00">
        <lanes/>
    </data>
    <data timestep="6.00">
        <lanes/>
    </data>
    <data timestep="7.00">
        <lanes/>
    </data>
    <data timestep="8.00">
        <lanes>
            <lane id="E0_0" queueing_time="1.00" queueing_length="6.01" queueing_length_experimental="6.01"/>
        </lanes>
    </data>
    <data timestep="9.00">
        <lanes>
            <lane id="-2239_1" queueing_time="0.00" queueing_length="0.00" queueing_length_experimental="6.07"/>
            <lane id="E0_0" queueing_time="2.00" queueing_length="6.00" queueing_length_experimental="6.00"/>
        </lanes>
    </data>
    <data timestep="10.00">
        <lanes>
            <lane id="-2239_1" queueing_time="1.00" queueing_length="6.00" queueing_length_experimental="6.00"/>
            <lane id="-9068_0" queueing_time="1.00" queueing_length="6.03" queueing_length_experimental="6.03"/>
            <lane id="E0_0" queueing_time="3.00" queueing_length="6.00" queueing_length_experimental="15.26"/>
        </lanes>
    </data>
    <data timestep="11.00">
        <lanes>
            <lane id="-2239_0" queueing_time="0.00" queueing_length="0.00" queueing_length_experimental="6.22"/>
            <lane id="-2239_1" queueing_time="2.00" queueing_length="6.00" queueing_length_experimental="6.00"/>
            <lane id="-9068_0" queueing_time="2.00" queueing_length="6.02" queueing_length_experimental="6.02"/>
            <lane id="E0_0" queueing_time="4.00" queueing_length="6.00" queueing_length_experimental="14.43"/>
        </lanes>
    </data>
    <data timestep="12.00">
        <lanes>
            <lane id="-2239_0" queueing_time="0.00" queueing_length="0.00" queueing_length_experimental="6.04"/>
            <lane id="-2239_1" queueing_time="3.00" queueing_length="6.00" queueing_length_experimental="6.00"/>
            <lane id="-9068_0" queueing_time="3.00" queueing_length="6.00" queueing_length_experimental="6.00"/>
            <lane id="E0_0" queueing_time="5.00" queueing_length="6.00" queueing_length_experimental="13.60"/>
        </lanes>
    </data>
    <data timestep="13.00">
        <lanes>
            <lane id="-2239_0" queueing_time="1.00" queueing_length="6.01" queueing_length_experimental="6.01"/>
            <lane id="-2239_1" queueing_time="4.00" queueing_length="6.00" queueing_length_experimental="6.00"/>
            <lane id="-9068_0" queueing_time="4.00" queueing_length="6.00" queueing_length_experimental="6.00"/>
            <lane id="E0_0" queueing_time="6.00" queueing_length="6.00" queueing_length_experimental="13.13"/>
        </lanes>
    </data>
    <data timestep="14.00">
        <lanes>
            <lane id="-2239_0" queueing_time="2.00" queueing_length="6.00" queueing_length_experimental="6.00"/>
            <lane id="-2239_1" queueing_time="5.00" queueing_length="6.00" queueing_length_experimental="14.15"/>
            <lane id="-9068_0" queueing_time="5.00" queueing_length="6.00" queueing_length_experimental="14.49"/>
            <lane id="E0_0" queueing_time="7.00" queueing_length="6.00" queueing_length_experimental="21.10"/>
        </lanes>
    </data>
    <data timestep="15.00">
        <lanes>
            <lane id="-2239_0" queueing_time="3.00" queueing_length="6.00" queueing_length_experimental="13.88"/>
            <lane id="-2239_1" queueing_time="6.00" queueing_length="6.00" queueing_length_experimental="13.48"/>
            <lane id="-9040_1" queueing_time="0.00" queueing_length="0.00" queueing_length_experimental="6.03"/>
            <lane id="-9068_0" queueing_time="6.00" queueing_length="6.00" queueing_length_experimental="13.41"/>
            <lane id="E0_0" queueing_time="8.00" queueing_length="6.00" queueing_length_experimental="20.48"/>
        </lanes>
    </data>
    <data timestep="16.00">
        <lanes>
            <lane id="-2239_0" queueing_time="4.00" queueing_length="6.00" queueing_length_experimental="13.34"/>
            <lane id="-2239_1" queueing_time="7.00" queueing_length="6.00" queueing_length_experimental="13.02"/>
            <lane id="-9040_1" queueing_time="1.00" queueing_length="6.00" queueing_length_experimental="6.00"/>
            <lane id="-9068_0" queueing_time="7.00" queueing_length="6.00" queueing_length_experimental="13.03"/>
            <lane id="E0_0" queueing_time="9.00" queueing_length="6.00" queueing_length_experimental="20.06"/>
        </lanes>
    </data>
    <data timestep="17.00">
        <lanes>
            <lane id="-2239_0" queueing_time="5.00" queueing_length="6.00" queueing_length_experimental="13.04"/>
            <lane id="-2239_1" queueing_time="8.00" queueing_length="6.00" queueing_length_experimental="12.79"/>
            <lane id="-9040_1" queueing_time="2.00" queueing_length="6.00" queueing_length_experimental="6.00"/>
            <lane id="-9068_0" queueing_time="8.00" queueing_length="6.00" queueing_length_experimental="20.79"/>
            <lane id="E0_0" queueing_time="10.00" queueing_length="12.49" queueing_length_experimental="19.64"/>
        </lanes>
    </data>
    <data timestep="18.00">
        <lanes>
            <lane id="-2239_0" queueing_time="6.00" queueing_length="6.00" queueing_length_experimental="12.73"/>
            <lane id="-2239_1" queueing_time="9.00" queueing_length="6.00" queueing_length_experimental="12.63"/>
            <lane id="-9040_0" queueing_time="0.00" queueing_length="0.00" queueing_length_experimental="6.06"/>
            <lane id="-9040_1" queueing_time="3.00" queueing_length="6.00" queueing_length_experimental="6.00"/>
            <lane id="-9068_0" queueing_time="9.00" queueing_length="6.00" queueing_length_experimental="20.09"/>
            <lane id="1656_0" queueing_time="1.00" queueing_length="6.02" queueing_length_experimental="6.02"/>
            <lane id="E0_0" queueing_time="11.00" queueing_length="12.43" queueing_length_experimental="27.01"/>
        </lanes>
    </data>
    <data timestep="19.00">
        <lanes>
            <lane id="-2239_0" queueing_time="7.00" queueing_length="6.00" queueing_length_experimental="12.55"/>
            <lane id="-2239_1" queueing_time="10.00" queueing_length="6.00" queueing_length_experimental="12.51"/>
            <lane id="-9040_0" queueing_time="1.00" queueing_length="6.03" queueing_length_experimental="6.03"/>
            <lane id="-9040_1" queueing_time="4.00" queueing_length="6.00" queueing_length_experimental="6.00"/>
            <lane id="-9068_0" queueing_time="10.00" queueing_length="12.54" queueing_length_experimental="19.71"/>
            <lane id="1656_0" queueing_time="2.00" queueing_length="6.01" queueing_length_experimental="6.01"/>
            <lane id="E0_0" queueing_time="12.00" queueing_length="12.41" queueing_length_experimental="36.20"/>
            <lane id="E6_1" queueing_time="0.00" queueing_length="0.00" queueing_length_experimental="6.19"/>
        </lanes>
    </data>
    <data timestep="20.00">
        <lanes>
            <lane id="-2239_0" queueing_time="8.00" queueing_length="12.50" queueing_length_experimental="12.50"/>
            <lane id="-2239_1" queueing_time="11.00" queueing_length="12.45" queueing_length_experimental="12.45"/>
            <lane id="-9040_0" queueing_time="2.00" queueing_length="6.01" queueing_length_experimental="6.01"/>
            <lane id="-9040_1" queueing_time="5.00" queueing_length="6.00" queueing_length_experimental="6.00"/>
            <lane id="-9068_0" queueing_time="11.00" queueing_length="12.48" queueing_length_experimental="19.33"/>
            <lane id="1656_0" queueing_time="3.00" queueing_length="6.00" queueing_length_experimental="6.00"/>
            <lane id="E0_0" queueing_time="13.00" queueing_length="19.02" queueing_length_experimental="35.10"/>
            <lane id="E6_1" queueing_time="0.00" queueing_length="0.00" queueing_length_experimental="6.05"/>
        </lanes>
    </data>
    <data timestep="21.00">
        <lanes>
            <lane id="-2239_0" queueing_time="9.00" queueing_length="12.44" queueing_length_experimental="12.44"/>
            <lane id="-2239_1" queueing_time="12.00" queueing_length="12.43" queueing_length_experimental="12.43"/>
            <lane id="-9040_0" queueing_time="3.00" queueing_length="6.00" queueing_length_experimental="6.00"/>
            <lane id="-9040_1" queueing_time="6.00" queueing_length="6.00" queueing_length_experimental="6.00"/>
            <lane id="-9068_0" queueing_time="12.00" queueing_length="12.45" queueing_length_experimental="19.13"/>
            <lane id="1656_0" queueing_time="4.00" queueing_length="6.00" queueing_length_experimental="6.00"/>
            <lane id="E0_0" queueing_time="14.00" queueing_length="18.93" queueing_length_experimental="34.07"/>
            <lane id="E6_1" queueing_time="1.00" queueing_length="6.01" queueing_length_experimental="6.01"/>
        </lanes>
    </data>
    <data timestep="22.00">
        <lanes>
            <lane id="-2239_0" queueing_time="10.00" queueing_length="12.42" queueing_length_experimental="12.42"/>
            <lane id="-2239_1" queueing_time="13.00" queueing_length="12.41" queueing_length_experimental="12.41"/>
            <lane id="-9040_0" queueing_time="4.00" queueing_length="6.00" queueing_length_experimental="6.00"/>
            <lane id="-9040_1" queueing_time="7.00" queueing_length="6.00" queueing_length_experimental="14.21"/>
            <lane id="-9068_0" queueing_time="13.00" queueing_length="12.42" queueing_length_experimental="18.97"/>
            <lane id="E0_0" queueing_time="15.00" queueing_length="18.85" queueing_length_experimental="33.41"/>
            <lane id="E6_1" queueing_time="2.00" queueing_length="6.00" queueing_length_experimental="6.00"/>
        </lanes>
    </data>
    <data timestep="23.00">
        <lanes>
            <lane id=":10281_7_0" queueing_time="0.00" queueing_length="0.00" queueing_length_experimental="5.33"/>
            <lane id="-2239_0" queueing_time="11.00" queueing_length="12.41" queueing_length_experimental="12.41"/>
            <lane id="-2239_1" queueing_time="14.00" queueing_length="12.40" queueing_length_experimental="12.40"/>
            <lane id="-9040_0" queueing_time="5.00" queueing_length="6.00" queueing_length_experimental="6.00"/>
            <lane id="-9040_1" queueing_time="8.00" queueing_length="6.00" queueing_length_experimental="13.40"/>
            <lane id="-9068_0" queueing_time="14.00" queueing_length="18.91" queueing_length_experimental="18.91"/>
            <lane id="E0_0" queueing_time="16.00" queueing_length="18.83" queueing_length_experimental="32.61"/>
            <lane id="E6_1" queueing_time="3.00" queueing_length="6.00" queueing_length_experimental="13.71"/>
        </lanes>
    </data>
    <data timestep="24.00">
        <lanes>
            <lane id=":10281_7_0" queueing_time="0.00" queueing_length="0.00" queueing_length_experimental="5.12"/>
            <lane id="-2239_0" queueing_time="12.00" queueing_length="12.40" queueing_length_experimental="12.40"/>
            <lane id="-2239_1" queueing_time="15.00" queueing_length="12.40" queueing_length_experimental="19.42"/>
            <lane id="-9040_0" queueing_time="6.00" queueing_length="6.00" queueing_length_experimental="6.00"/>
            <lane id="-9040_1" queueing_time="9.00" queueing_length="6.00" queueing_length_experimental="12.85"/>
            <lane id="-9068_0" queueing_time="15.00" queueing_length="18.85" queueing_length_experimental="18.85"/>
            <lane id="E0_0" queueing_time="17.00" queueing_length="25.32" queueing_length_experimental="32.20"/>
            <lane id="E6_1" queueing_time="4.00" queueing_length="6.00" queueing_length_experimental="13.24"/>
        </lanes>
    </data>
    <data timestep="25.00">
        <lanes>
            <lane id=":10281_7_0" queueing_time="1.00" queueing_length="5.10" queueing_length_experimental="5.10"/>
            <lane id="-2239_0" queueing_time="13.00" queueing_length="12.39" queueing_length_experimental="12.39"/>
            <lane id="-2239_1" queueing_time="16.00" queueing_length="12.39" queueing_length_experimental="19.16"/>
            <lane id="-9040_0" queueing_time="7.00" queueing_length="6.00" queueing_length_experimental="6.00"/>
            <lane id="-9040_1" queueing_time="10.00" queueing_length="6.00" queueing_length_experimental="12.61"/>
            <lane id="-9068_0" queueing_time="16.00" queueing_length="18.84" queueing_length_experimental="18.84"/>
            <lane id="E0_0" queueing_time="18.00" queueing_length="25.26" queueing_length_experimental="32.00"/>
            <lane id="E6_1" queueing_time="5.00" queueing_length="6.00" queueing_length_experimental="21.78"/>
        </lanes>
    </data>
    <data timestep="26.00">
        <lanes>
            <lane id=":10281_7_0" queueing_time="2.00" queueing_length="5.10" queueing_length_experimental="5.10"/>
            <lane id="-2239_0" queueing_time="14.00" queueing_length="12.39" queueing_length_experimental="12.39"/>
            <lane id="-2239_1" queueing_time="17.00" queueing_length="12.39" queueing_length_experimental="19.05"/>
            <lane id="-9040_0" queueing_time="8.00" queueing_length="6.00" queueing_length_experimental="6.00"/>
            <lane id="-9040_1" queueing_time="11.00" queueing_length="12.52" queueing_length_experimental="12.52"/>
            <lane id="-9068_0" queueing_time="17.00" queueing_length="18.81" queueing_length_experimental="18.81"/>
            <lane id="E0_0" queueing_time="19.00" queueing_length="25.23" queueing_length_experimental="31.89"/>
            <lane id="E6_1" queueing_time="6.00" queueing_length="6.00" queueing_length_experimental="20.89"/>
        </lanes>
    </data>
    <data timestep="27.00">
        <lanes>
            <lane id=":10281_7_0" queueing_time="3.00" queueing_length="5.10" queueing_length_experimental="5.10"/>
            <lane id="-2239_0" queueing_time="15.00" queueing_length="12.39" queueing_length_experimental="12.39"/>
            <lane id="-2239_1" queueing_time="18.00" queueing_length="18.96" queueing_length_experimental="18.96"/>
            <lane id="-9040_0" queueing_time="9.00" queueing_length="6.00" queueing_length_experimental="6.00"/>
            <lane id="-9040_1" queueing_time="12.00" queueing_length="12.47" queueing_length_experimental="12.47"/>
            <lane id="-9068_0" queueing_time="18.00" queueing_length="18.80" queueing_length_experimental="18.80"/>
            <lane id="E0_0" queueing_time="20.00" queueing_length="31.80" queueing_length_experimental="31.80"/>
            <lane id="E6_1" queueing_time="7.00" queueing_length="12.58" queueing_length_experimental="20.36"/>
        </lanes>
    </data>
    <data timestep="28.00">
        <lanes>
            <lane id="-2239_0" queueing_time="16.00" queueing_length="12.39" queueing_length_experimental="12.39"/>
            <lane id="-2239_1" queueing_time="19.00" queueing_length="18.91" queueing_length_experimental="18.91"/>
            <lane id="-9040_0" queueing_time="10.00" queueing_length="6.00" queueing_length_experimental="6.00"/>
            <lane id="-9040_1" queueing_time="13.00" queueing_length="12.44" queueing_length_experimental="12.44"/>
            <lane id="-9045_1" queueing_time="0.00" queueing_length="0.00" queueing_length_experimental="9.11"/>
            <lane id="-9068_0" queueing_time="19.00" queueing_length="18.79" queueing_length_experimental="18.79"/>
            <lane id="E0_0" queueing_time="21.00" queueing_length="31.74" queueing_length_experimental="31.74"/>
            <lane id="E6_1" queueing_time="8.00" queueing_length="12.52" queueing_length_experimental="19.74"/>
        </lanes>
    </data>
    <data timestep="29.00">
        <lanes>
            <lane id="-2239_0" queueing_time="17.00" queueing_length="12.39" queueing_length_experimental="12.39"/>
            <lane id="-2239_1" queueing_time="20.00" queueing_length="18.84" queueing_length_experimental="18.84"/>
            <lane id="-9040_0" queueing_time="11.00" queueing_length="6.00" queueing_length_experimental="6.00"/>
            <lane id="-9040_1" queueing_time="14.00" queueing_length="12.42" queueing_length_experimental="12.42"/>
            <lane id="-9068_0" queueing_time="20.00" queueing_length="18.78" queueing_length_experimental="18.78"/>
            <lane id="E0_0" queueing_time="22.00" queueing_length="31.66" queueing_length_experimental="31.66"/>
            <lane id="E6_1" queueing_time="9.00" queueing_length="12.45" queueing_length_experimental="19.47"/>
        </lanes>
    </data>
    <data timestep="30.00">
        <lanes>
            <lane id="-2239_0" queueing_time="18.00" queueing_length="12.39" queueing_length_experimental="12.39"/>
            <lane id="-2239_1" queueing_time="21.00" queueing_length="18.81" queueing_length_experimental="18.81"/>
            <lane id="-9040_0" queueing_time="0.00" queueing_length="0.00" queueing_length_experimental="13.51"/>
            <lane id="-9040_1" queueing_time="5.00" queueing_length="12.40" queueing_length_experimental="12.40"/>
            <lane id="-9068_0" queueing_time="21.00" queueing_length="18.78" queueing_length_experimental="18.78"/>
            <lane id="9040_0" queueing_time="0.00" queueing_length="0.00" queueing_length_experimental="6.16"/>
            <lane id="E0_0" queueing_time="23.00" queueing_length="31.61" queueing_length_experimental="31.61"/>
            <lane id="E6_1" queueing_time="10.00" queueing_length="12.43" queueing_length_experimental="19.17"/>
        </lanes>
    </data>
    <data timestep="31.00">
        <lanes>
            <lane id="-2239_0" queueing_time="19.00" queueing_length="12.39" queueing_length_experimental="12.39"/>
            <lane id="-2239_1" queueing_time="22.00" queueing_length="18.80" queueing_length_experimental="18.80"/>
            <lane id="-9040_1" queueing_time="0.00" queueing_length="0.00" queueing_length_experimental="11.49"/>
            <lane id="-9068_0" queueing_time="22.00" queueing_length="18.78" queueing_length_experimental="18.78"/>
            <lane id="9040_0" queueing_time="0.00" queueing_length="0.00" queueing_length_experimental="6.05"/>
            <lane id="E0_0" queueing_time="24.00" queueing_length="31.60" queueing_length_experimental="31.60"/>
            <lane id="E6_1" queueing_time="11.00" queueing_length="12.42" queueing_length_experimental="19.01"/>
        </lanes>
    </data>
    <data timestep="32.00">
        <lanes>
            <lane id="-2239_0" queueing_time="20.00" queueing_length="12.39" queueing_length_experimental="12.39"/>
            <lane id="-2239_1" queueing_time="23.00" queueing_length="18.79" queueing_length_experimental="18.79"/>
            <lane id="-9068_0" queueing_time="23.00" queueing_length="18.78" queueing_length_experimental="18.78"/>
            <lane id="9040_0" queueing_time="1.00" queueing_length="6.02" queueing_length_experimental="6.02"/>
            <lane id="E0_0" queueing_time="25.00" queueing_length="31.58" queueing_length_experimental="31.58"/>
            <lane id="E6_1" queueing_time="12.00" queueing_length="18.92" queueing_length_experimental="18.92"/>
        </lanes>
    </data>
    <data timestep="33.00">
        <lanes>
            <lane id="-2239_0" queueing_time="21.00" queueing_length="12.39" queueing_length_experimental="12.39"/>
            <lane id="-2239_1" queueing_time="24.00" queueing_length="18.78" queueing_length_experimental="18.78"/>
            <lane id="-9045_1" queueing_time="0.00" queueing_length="0.00" queueing_length_experimental="6.29"/>
            <lane id="-9068_0" queueing_time="24.00" queueing_length="18.78" queueing_length_experimental="18.78"/>
            <lane id="9040_0" queueing_time="2.00" queueing_length="6.01" queueing_length_experimental="6.01"/>
            <lane id="E0_0" queueing_time="26.00" queueing_length="31.57" queueing_length_experimental="31.57"/>
            <lane id="E6_1" queueing_time="13.00" queueing_length="18.87" queueing_length_experimental="18.87"/>
        </lanes>
    </data>
    <data timestep="34.00">
        <lanes>
            <lane id="-2239_0" queueing_time="22.00" queueing_length="12.39" queueing_length_experimental="12.39"/>
            <lane id="-2239_1" queueing_time="25.00" queueing_length="18.78" queueing_length_experimental="18.78"/>
            <lane id="-9045_1" queueing_time="0.00" queueing_length="0.00" queueing_length_experimental="6.01"/>
            <lane id="-9068_0" queueing_time="16.00" queueing_length="18.78" queueing_length_experimental="18.78"/>
            <lane id="9040_0" queueing_time="3.00" queueing_length="6.00" queueing_length_experimental="6.00"/>
            <lane id="9089_0" queueing_time="0.00" queueing_length="0.00" queueing_length_experimental="6.13"/>
            <lane id="E0_0" queueing_time="18.00" queueing_length="31.56" queueing_length_experimental="31.56"/>
            <lane id="E6_1" queueing_time="8.00" queueing_length="18.84" queueing_length_experimental="18.84"/>
        </lanes>
    </data>
    <data timestep="35.00">
        <lanes>
            <lane id="-2239_0" queueing_time="23.00" queueing_length="12.39" queueing_length_experimental="12.39"/>
            <lane id="-2239_1" queueing_time="26.00" queueing_length="18.78" queueing_length_experimental="18.78"/>
            <lane id="-9045_1" queueing_time="1.00" queueing_length="6.01" queueing_length_experimental="6.01"/>
            <lane id="-9068_0" queueing_time="13.00" queueing_length="18.78" queueing_length_experimental="18.78"/>
            <lane id="9040_0" queueing_time="4.00" queueing_length="6.00" queueing_length_experimental="6.00"/>
            <lane id="9052_0" queueing_time="0.00" queueing_length="0.00" queueing_length_experimental="6.08"/>
            <lane id="9089_0" queueing_time="0.00" queueing_length="0.00" queueing_length_experimental="6.01"/>
            <lane id="E0_0" queueing_time="16.00" queueing_length="31.56" queueing_length_experimental="31.56"/>
            <lane id="E6_1" queueing_time="4.00" queueing_length="18.82" queueing_length_experimental="18.82"/>
        </lanes>
    </data>
    <data timestep="36.00">
        <lanes>
            <lane id="-2239_0" queueing_time="17.00" queueing_length="12.39" queueing_length_experimental="12.39"/>
            <lane id="-2239_1" queueing_time="17.00" queueing_length="18.78" queueing_length_experimental="18.78"/>
            <lane id="-9045_1" queueing_time="2.00" queueing_length="6.00" queueing_length_experimental="6.00"/>
            <lane id="-9068_0" queueing_time="0.00" queueing_length="0.00" queueing_length_experimental="18.16"/>
            <lane id="9052_0" queueing_time="1.00" queueing_length="6.04" queueing_length_experimental="6.04"/>
            <lane id="9089_0" queueing_time="1.00" queueing_length="6.00" queueing_length_experimental="6.00"/>
            <lane id="E0_0" queueing_time="13.00" queueing_length="31.56" queueing_length_experimental="31.56"/>
            <lane id="E6_1" queueing_time="0.00" queueing_length="0.00" queueing_length_experimental="18.09"/>
        </lanes>
    </data>
    <data timestep="37.00">
        <lanes>
            <lane id="-2239_0" queueing_time="0.00" queueing_length="0.00" queueing_length_experimental="21.13"/>
            <lane id="-2239_1" queueing_time="11.00" queueing_length="18.78" queueing_length_experimental="18.78"/>
            <lane id="-9045_1" queueing_time="3.00" queueing_length="6.00" queueing_length_experimental="6.00"/>
            <lane id="9052_0" queueing_time="2.00" queueing_length="6.01" queueing_length_experimental="6.01"/>
            <lane id="9089_0" queueing_time="2.00" queueing_length="6.00" queueing_length_experimental="6.00"/>
            <lane id="E0_0" queueing_time="11.00" queueing_length="31.55" queueing_length_experimental="31.55"/>
        </lanes>
    </data>
    <data timestep="38.00">
        <lanes>
            <lane id="-2239_1" queueing_time="0.00" queueing_length="0.00" queueing_length_experimental="18.06"/>
            <lane id="-9045_1" queueing_time="4.00" queueing_length="6.00" queueing_length_experimental="6.00"/>
            <lane id="9052_0" queueing_time="3.00" queueing_length="6.00" queueing_length_experimental="6.00"/>
            <lane id="9089_0" queueing_time="3.00" queueing_length="6.00" queueing_length_experimental="6.00"/>
            <lane id="E0_0" queueing_time="0.00" queueing_length="0.00" queueing_length_experimental="31.40"/>
        </lanes>
    </data>
    <data timestep="39.00">
        <lanes>
            <lane id="-9045_1" queueing_time="5.00" queueing_length="6.00" queueing_length_experimental="6.00"/>
            <lane id="9052_0" queueing_time="4.00" queueing_length="6.00" queueing_length_experimental="6.00"/>
            <lane id="9089_0" queueing_time="4.00" queueing_length="6.00" queueing_length_experimental="6.00"/>
            <lane id="E0_0" queueing_time="0.00" queueing_length="0.00" queueing_length_experimental="30.75"/>
        </lanes>
    </data>
    <data timestep="40.00">
        <lanes>
            <lane id="-9045_1" queueing_time="6.00" queueing_length="6.00" queueing_length_experimental="6.00"/>
            <lane id="9052_0" queueing_time="5.00" queueing_length="6.00" queueing_length_experimental="6.00"/>
            <lane id="9089_0" queueing_time="5.00" queueing_length="6.00" queueing_length_experimental="6.00"/>
        </lanes>
    </data>
    <data timestep="41.00">
        <lanes>
            <lane id="-9045_1" queueing_time="7.00" queueing_length="6.00" queueing_length_experimental="6.00"/>
            <lane id="9052_0" queueing_time="6.00" queueing_length="6.00" queueing_length_experimental="6.00"/>
            <lane id="9089_0" queueing_time="6.00" queueing_length="6.00" queueing_length_experimental="6.00"/>
        </lanes>
    </data>
    <data timestep="42.00">
        <lanes>
            <lane id="-9045_0" queueing_time="0.00" queueing_length="0.00" queueing_length_experimental="6.01"/>
            <lane id="-9045_1" queueing_time="8.00" queueing_length="6.00" queueing_length_experimental="13.39"/>
            <lane id="9052_0" queueing_time="7.00" queueing_length="6.00" queueing_length_experimental="6.00"/>
            <lane id="9089_0" queueing_time="7.00" queueing_length="6.00" queueing_length_experimental="6.00"/>
        </lanes>
    </data>
    <data timestep="43.00">
        <lanes>
            <lane id="-9045_0" queueing_time="1.00" queueing_length="6.01" queueing_length_experimental="6.01"/>
            <lane id="-9045_1" queueing_time="9.00" queueing_length="6.00" queueing_length_experimental="22.96"/>
            <lane id="-9069_0" queueing_time="0.00" queueing_length="0.00" queueing_length_experimental="6.54"/>
            <lane id="9052_0" queueing_time="8.00" queueing_length="6.00" queueing_length_experimental="6.00"/>
            <lane id="9089_0" queueing_time="8.00" queueing_length="6.00" queueing_length_experimental="6.00"/>
        </lanes>
    </data>
    <data timestep="44.00">
        <lanes>
            <lane id="-9040_1" queueing_time="0.00" queueing_length="0.00" queueing_length_experimental="6.01"/>
            <lane id="-9045_0" queueing_time="2.00" queueing_length="6.00" queueing_length_experimental="6.00"/>
            <lane id="-9045_1" queueing_time="10.00" queueing_length="6.00" queueing_length_experimental="12.81"/>
            <lane id="-9069_0" queueing_time="0.00" queueing_length="0.00" queueing_length_experimental="6.15"/>
            <lane id="9052_0" queueing_time="9.00" queueing_length="6.00" queueing_length_experimental="6.00"/>
            <lane id="9089_0" queueing_time="9.00" queueing_length="6.00" queueing_length_experimental="6.00"/>
        </lanes>
    </data>
    <data timestep="45.00">
        <lanes>
            <lane id="-9040_0" queueing_time="0.00" queueing_length="0.00" queueing_length_experimental="6.10"/>