<?xml version="1.0" encoding="UTF-8"?>

<!-- generated on 2024-04-23 12:52:34 by Eclipse SUMO GUI Version 1.19.0
<configuration xmlns:xsi="http://www.w3.org/2001/XMLSchema-instance" xsi:noNamespaceSchemaLocation="http://sumo.dlr.de/xsd/sumoConfiguration.xsd">

    <input>
        <net-file value="C:\Users\mehdi\OneDrive - University of Tennessee\Documents\CUIP Projects\Fraizer street\ITSC\sc2\left_turn_protected_final.net.xml"/>
        <route-files value="C:\Users\mehdi\OneDrive - University of Tennessee\Documents\CUIP Projects\Fraizer street\ITSC\sc2\s2_itsc_mean_pm.rou.xml"/>
        <additional-files value="C:\Users\mehdi\OneDrive - University of Tennessee\Documents\CUIP Projects\Fraizer street\ITSC\sc2\detector.add.xml,C:\Users\mehdi\OneDrive - University of Tennessee\Documents\CUIP Projects\Fraizer street\ITSC\sc2\ edgedata.add.xml"/>
    </input>

    <output>
        <queue-output value="C:\Users\mehdi\OneDrive - University of Tennessee\Documents\CUIP Projects\Fraizer street\ITSC\sc2\queue_after.xml"/>
    </output>

    <time>
        <begin value="0"/>
        <end value="21600"/>
    </time>

    <processing>
        <ignore-junction-blocker value="1"/>
        <ignore-route-errors value="true"/>
        <waiting-time-memory value="100000000"/>
    </processing>

    <report>
        <xml-validation value="never"/>
        <no-warnings value="true"/>
    </report>

</configuration>
-->

<queue-export xmlns:xsi="http://www.w3.org/2001/XMLSchema-instance" xsi:noNamespaceSchemaLocation="http://sumo.dlr.de/xsd/queue_file.xsd">
    <data timestep="0.00">
        <lanes/>
    </data>
    <data timestep="1.00">
        <lanes/>
    </data>
    <data timestep="2.00">
        <lanes/>
    </data>
    <data timestep="3.00">
        <lanes/>
    </data>
    <data timestep="4.00">
        <lanes/>
    </data>
    <data timestep="5.00">
        <lanes/>
    </data>
    <data timestep="6.00">
        <lanes/>
    </data>
    <data timestep="7.00">
        <lanes/>
    </data>
    <data timestep="8.00">
        <lanes>
            <lane id="E0_0" queueing_time="0.00" queueing_length="0.00" queueing_length_experimental="6.49"/>
        </lanes>
    </data>
    <data timestep="9.00">
        <lanes>
            <lane id="-2239_1" queueing_time="0.00" queueing_length="0.00" queueing_length_experimental="6.22"/>
            <lane id="E0_0" queueing_time="0.00" queueing_length="0.00" queueing_length_experimental="6.24"/>
        </lanes>
    </data>
    <data timestep="10.00">
        <lanes>
            <lane id="-2239_1" queueing_time="0.00" queueing_length="0.00" queueing_length_experimental="6.02"/>
            <lane id="9089_0" queueing_time="0.00" queueing_length="0.00" queueing_length_experimental="6.07"/>
            <lane id="E0_0" queueing_time="0.00" queueing_length="0.00" queueing_length_experimental="6.03"/>
        </lanes>
    </data>
    <data timestep="11.00">
        <lanes>
            <lane id="-2239_1" queueing_time="1.00" queueing_length="6.01" queueing_length_experimental="6.01"/>
            <lane id="-9068_0" queueing_time="0.00" queueing_length="0.00" queueing_length_experimental="6.01"/>
            <lane id="9089_0" queueing_time="1.00" queueing_length="6.03" queueing_length_experimental="6.03"/>
            <lane id="E0_0" queueing_time="1.00" queueing_length="6.01" queueing_length_experimental="14.84"/>
        </lanes>
    </data>
    <data timestep="12.00">
        <lanes>
            <lane id="-2239_1" queueing_time="2.00" queueing_length="6.00" queueing_length_experimental="6.00"/>
            <lane id="-9068_0" queueing_time="1.00" queueing_length="6.00" queueing_length_experimental="6.00"/>
            <lane id="9089_0" queueing_time="2.00" queueing_length="6.00" queueing_length_experimental="6.00"/>
            <lane id="E0_0" queueing_time="2.00" queueing_length="6.00" queueing_length_experimental="14.13"/>
        </lanes>
    </data>
    <data timestep="13.00">
        <lanes>
            <lane id="-2239_1" queueing_time="3.00" queueing_length="6.00" queueing_length_experimental="14.24"/>
            <lane id="-9068_0" queueing_time="2.00" queueing_length="6.00" queueing_length_experimental="6.00"/>
            <lane id="9089_0" queueing_time="3.00" queueing_length="6.00" queueing_length_experimental="14.18"/>
            <lane id="E0_0" queueing_time="3.00" queueing_length="6.00" queueing_length_experimental="13.41"/>
        </lanes>
    </data>
    <data timestep="14.00">
        <lanes>
            <lane id="-2239_1" queueing_time="4.00" queueing_length="6.00" queueing_length_experimental="13.71"/>
            <lane id="-9068_0" queueing_time="3.00" queueing_length="6.00" queueing_length_experimental="13.29"/>
            <lane id="9089_0" queueing_time="4.00" queueing_length="6.00" queueing_length_experimental="13.40"/>
            <lane id="E0_0" queueing_time="4.00" queueing_length="6.00" queueing_length_experimental="22.49"/>
        </lanes>
    </data>
    <data timestep="15.00">
        <lanes>
            <lane id="-2239_1" queueing_time="5.00" queueing_length="6.00" queueing_length_experimental="13.17"/>
            <lane id="-9068_0" queueing_time="4.00" queueing_length="6.00" queueing_length_experimental="13.01"/>
            <lane id="9089_0" queueing_time="5.00" queueing_length="6.00" queueing_length_experimental="13.11"/>
            <lane id="E0_0" queueing_time="5.00" queueing_length="6.00" queueing_length_experimental="21.34"/>
        </lanes>
    </data>
    <data timestep="16.00">
        <lanes>
            <lane id="-2239_1" queueing_time="6.00" queueing_length="6.00" queueing_length_experimental="12.87"/>
            <lane id="-9068_0" queueing_time="5.00" queueing_length="6.00" queueing_length_experimental="12.73"/>
            <lane id="9039_0" queueing_time="0.00" queueing_length="0.00" queueing_length_experimental="6.10"/>
            <lane id="9089_0" queueing_time="6.00" queueing_length="6.00" queueing_length_experimental="12.82"/>
            <lane id="E0_0" queueing_time="0.00" queueing_length="0.00" queueing_length_experimental="20.62"/>
        </lanes>
    </data>
    <data timestep="17.00">
        <lanes>
            <lane id="-2239_1" queueing_time="7.00" queueing_length="6.00" queueing_length_experimental="20.73"/>
            <lane id="-9068_0" queueing_time="6.00" queueing_length="6.00" queueing_length_experimental="20.61"/>
            <lane id="9039_0" queueing_time="1.00" queueing_length="6.00" queueing_length_experimental="6.00"/>
            <lane id="9089_0" queueing_time="7.00" queueing_length="6.00" queueing_length_experimental="20.36"/>
            <lane id="E0_0" queueing_time="0.00" queueing_length="0.00" queueing_length_experimental="29.91"/>
        </lanes>
    </data>
    <data timestep="18.00">
        <lanes>
            <lane id="-2239_1" queueing_time="8.00" queueing_length="6.00" queueing_length_experimental="20.28"/>
            <lane id="-9068_0" queueing_time="1.00" queueing_length="12.50" queueing_length_experimental="19.99"/>
            <lane id="9039_0" queueing_time="2.00" queueing_length="6.00" queueing_length_experimental="6.00"/>
            <lane id="9089_0" queueing_time="8.00" queueing_length="6.00" queueing_length_experimental="19.74"/>
            <lane id="E0_0" queueing_time="0.00" queueing_length="0.00" queueing_length_experimental="19.16"/>
        </lanes>
    </data>
    <data timestep="19.00">
        <lanes>
            <lane id="-2239_1" queueing_time="9.00" queueing_length="6.00" queueing_length_experimental="28.11"/>
            <lane id="-9068_0" queueing_time="0.00" queueing_length="0.00" queueing_length_experimental="19.67"/>
            <lane id="9039_0" queueing_time="3.00" queueing_length="6.00" queueing_length_experimental="6.00"/>
            <lane id="9089_0" queueing_time="9.00" queueing_length="12.46" queueing_length_experimental="19.28"/>
            <lane id="E0_0" queueing_time="0.00" queueing_length="0.00" queueing_length_experimental="27.01"/>
        </lanes>
    </data>
    <data timestep="20.00">
        <lanes>
            <lane id="-2239_1" queueing_time="10.00" queueing_length="12.46" queueing_length_experimental="27.42"/>
            <lane id="9039_0" queueing_time="4.00" queueing_length="6.00" queueing_length_experimental="14.03"/>
            <lane id="9089_0" queueing_time="10.00" queueing_length="12.42" queueing_length_experimental="19.12"/>
            <lane id="E0_0" queueing_time="0.00" queueing_length="0.00" queueing_length_experimental="25.67"/>
        </lanes>
    </data>
    <data timestep="21.00">
        <lanes>
            <lane id=":10301_8_0" queueing_time="0.00" queueing_length="0.00" queueing_length_experimental="5.37"/>
            <lane id="-2239_1" queueing_time="11.00" queueing_length="12.43" queueing_length_experimental="26.86"/>
            <lane id="9039_0" queueing_time="5.00" queueing_length="6.00" queueing_length_experimental="13.44"/>
            <lane id="9089_0" queueing_time="11.00" queueing_length="12.41" queueing_length_experimental="18.98"/>
        </lanes>
    </data>
    <data timestep="22.00">
        <lanes>
            <lane id=":10301_8_0" queueing_time="0.00" queueing_length="0.00" queueing_length_experimental="5.21"/>
            <lane id="-2239_1" queueing_time="12.00" queueing_length="12.42" queueing_length_experimental="26.38"/>
            <lane id="-9045_1" queueing_time="1.00" queueing_length="6.05" queueing_length_experimental="6.05"/>
            <lane id="9039_0" queueing_time="6.00" queueing_length="6.00" queueing_length_experimental="13.15"/>
            <lane id="9089_0" queueing_time="12.00" queueing_length="12.40" queueing_length_experimental="26.89"/>
        </lanes>
    </data>
    <data timestep="23.00">
        <lanes>
            <lane id=":10301_8_0" queueing_time="1.00" queueing_length="5.14" queueing_length_experimental="5.14"/>
            <lane id="-2239_1" queueing_time="13.00" queueing_length="18.91" queueing_length_experimental="34.25"/>
            <lane id="-9045_1" queueing_time="2.00" queueing_length="6.01" queueing_length_experimental="6.01"/>
            <lane id="9039_0" queueing_time="7.00" queueing_length="6.00" queueing_length_experimental="12.83"/>
            <lane id="9089_0" queueing_time="13.00" queueing_length="18.85" queueing_length_experimental="26.25"/>
        </lanes>
    </data>
    <data timestep="24.00">
        <lanes>
            <lane id="-2239_1" queueing_time="14.00" queueing_length="18.86" queueing_length_experimental="33.51"/>
            <lane id="-9045_0" queueing_time="0.00" queueing_length="0.00" queueing_length_experimental="6.19"/>
            <lane id="-9045_1" queueing_time="3.00" queueing_length="6.00" queueing_length_experimental="6.00"/>
            <lane id="9039_0" queueing_time="8.00" queueing_length="6.00" queueing_length_experimental="20.42"/>
            <lane id="9089_0" queueing_time="14.00" queueing_length="18.82" queueing_length_experimental="25.86"/>
            <lane id="E6_1" queueing_time="0.00" queueing_length="0.00" queueing_length_experimental="5.32"/>
        </lanes>
    </data>
    <data timestep="25.00">
        <lanes>
            <lane id="-2239_1" queueing_time="15.00" queueing_length="18.83" queueing_length_experimental="33.11"/>
            <lane id="-9045_0" queueing_time="0.00" queueing_length="0.00" queueing_length_experimental="6.08"/>
            <lane id="-9045_1" queueing_time="4.00" queueing_length="6.00" queueing_length_experimental="6.00"/>
            <lane id="9039_0" queueing_time="9.00" queueing_length="6.00" queueing_length_experimental="20.01"/>
            <lane id="9089_0" queueing_time="15.00" queueing_length="18.80" queueing_length_experimental="25.67"/>
        </lanes>
    </data>
    <data timestep="26.00">
        <lanes>
            <lane id="-2239_1" queueing_time="16.00" queueing_length="18.81" queueing_length_experimental="32.61"/>
            <lane id="-9045_0" queueing_time="1.00" queueing_length="6.02" queueing_length_experimental="6.02"/>
            <lane id="-9045_1" queueing_time="5.00" queueing_length="6.00" queueing_length_experimental="6.00"/>
            <lane id="9039_0" queueing_time="10.00" queueing_length="12.48" queueing_length_experimental="28.95"/>
            <lane id="9089_0" queueing_time="16.00" queueing_length="18.79" queueing_length_experimental="25.44"/>
        </lanes>
    </data>
    <data timestep="27.00">
        <lanes>
            <lane id="-2239_1" queueing_time="17.00" queueing_length="25.28" queueing_length_experimental="32.32"/>
            <lane id="-9045_0" queueing_time="2.00" queueing_length="6.00" queueing_length_experimental="6.00"/>
            <lane id="-9045_1" queueing_time="6.00" queueing_length="6.00" queueing_length_experimental="6.00"/>
            <lane id="9039_0" queueing_time="2.00" queueing_length="12.43" queueing_length_experimental="27.97"/>
            <lane id="9089_0" queueing_time="17.00" queueing_length="18.79" queueing_length_experimental="25.30"/>
        </lanes>
    </data>
    <data timestep="28.00">
        <lanes>
            <lane id="-2239_1" queueing_time="18.00" queueing_length="25.24" queueing_length_experimental="32.02"/>
            <lane id="-9045_0" queueing_time="3.00" queueing_length="6.00" queueing_length_experimental="6.00"/>
            <lane id="-9045_1" queueing_time="7.00" queueing_length="6.00" queueing_length_experimental="6.00"/>
            <lane id="9039_0" queueing_time="0.00" queueing_length="0.00" queueing_length_experimental="27.13"/>
            <lane id="9089_0" queueing_time="18.00" queueing_length="25.25" queueing_length_experimental="25.25"/>
        </lanes>
    </data>
    <data timestep="29.00">
        <lanes>
            <lane id="-2239_1" queueing_time="19.00" queueing_length="25.22" queueing_length_experimental="31.86"/>
            <lane id="-9045_0" queueing_time="4.00" queueing_length="6.00" queueing_length_experimental="13.53"/>
            <lane id="-9045_1" queueing_time="8.00" queueing_length="6.00" queueing_length_experimental="6.00"/>
            <lane id="9039_0" queueing_time="0.00" queueing_length="0.00" queueing_length_experimental="35.54"/>
            <lane id="9089_0" queueing_time="19.00" queueing_length="25.21" queueing_length_experimental="25.21"/>
        </lanes>
    </data>
    <data timestep="30.00">
        <lanes>
            <lane id="-2239_1" queueing_time="20.00" queueing_length="25.19" queueing_length_experimental="31.72"/>
            <lane id="-9045_0" queueing_time="5.00" queueing_length="6.00" queueing_length_experimental="13.04"/>
            <lane id="-9045_1" queueing_time="9.00" queueing_length="6.00" queueing_length_experimental="6.00"/>
            <lane id="9039_0" queueing_time="0.00" queueing_length="0.00" queueing_length_experimental="34.71"/>
            <lane id="9089_0" queueing_time="20.00" queueing_length="25.19" queueing_length_experimental="25.19"/>
        </lanes>
    </data>
    <data timestep="31.00">
        <lanes>
            <lane id="-2239_1" queueing_time="21.00" queueing_length="31.67" queueing_length_experimental="31.67"/>
            <lane id="-9045_0" queueing_time="0.00" queueing_length="0.00" queueing_length_experimental="22.93"/>
            <lane id="9039_0" queueing_time="0.00" queueing_length="0.00" queueing_length_experimental="33.44"/>
            <lane id="9089_0" queueing_time="21.00" queueing_length="25.18" queueing_length_experimental="25.18"/>
        </lanes>
    </data>
    <data timestep="32.00">
        <lanes>
            <lane id=":10281_5_0" queueing_time="0.00" queueing_length="0.00" queueing_length_experimental="5.19"/>
            <lane id="-2239_1" queueing_time="22.00" queueing_length="31.63" queueing_length_experimental="31.63"/>
            <lane id="-9045_0" queueing_time="0.00" queueing_length="0.00" queueing_length_experimental="21.56"/>
            <lane id="-9069_0" queueing_time="1.00" queueing_length="6.00" queueing_length_experimental="6.00"/>
            <lane id="9089_0" queueing_time="22.00" queueing_length="25.17" queueing_length_experimental="25.17"/>
        </lanes>
    </data>
    <data timestep="33.00">
        <lanes>
            <lane id=":10281_5_0" queueing_time="1.00" queueing_length="5.10" queueing_length_experimental="5.10"/>
            <lane id="-2239_1" queueing_time="23.00" queueing_length="31.60" queueing_length_experimental="31.60"/>
            <lane id="-9045_0" queueing_time="0.00" queueing_length="0.00" queueing_length_experimental="20.21"/>
            <lane id="-9069_0" queueing_time="2.00" queueing_length="6.00" queueing_length_experimental="6.00"/>
            <lane id="9045_0" queueing_time="0.00" queueing_length="0.00" queueing_length_experimental="6.20"/>
            <lane id="9089_0" queueing_time="23.00" queueing_length="25.17" queueing_length_experimental="33.84"/>
        </lanes>
    </data>
    <data timestep="34.00">
        <lanes>
            <lane id=":10281_5_0" queueing_time="2.00" queueing_length="5.10" queueing_length_experimental="5.10"/>
            <lane id="-2239_1" queueing_time="24.00" queueing_length="31.58" queueing_length_experimental="31.58"/>
            <lane id="-9069_0" queueing_time="3.00" queueing_length="6.00" queueing_length_experimental="6.00"/>
            <lane id="-9069_1" queueing_time="0.00" queueing_length="0.00" queueing_length_experimental="6.09"/>
            <lane id="9045_0" queueing_time="0.00" queueing_length="0.00" queueing_length_experimental="6.03"/>
            <lane id="9089_0" queueing_time="24.00" queueing_length="25.17" queueing_length_experimental="33.11"/>
        </lanes>
    </data>
    <data timestep="35.00">
        <lanes>
            <lane id=":10281_5_0" queueing_time="3.00" queueing_length="5.10" queueing_length_experimental="5.10"/>
            <lane id="-2239_1" queueing_time="16.00" queueing_length="31.56" queueing_length_experimental="31.56"/>
            <lane id="-9069_0" queueing_time="4.00" queueing_length="6.00" queueing_length_experimental="6.00"/>
            <lane id="-9069_1" queueing_time="1.00" queueing_length="6.00" queueing_length_experimental="6.00"/>
            <lane id="9045_0" queueing_time="1.00" queueing_length="6.02" queueing_length_experimental="6.02"/>
            <lane id="9089_0" queueing_time="25.00" queueing_length="25.16" queueing_length_experimental="32.68"/>
        </lanes>
    </data>
    <data timestep="36.00">
        <lanes>
            <lane id=":10281_5_0" queueing_time="4.00" queueing_length="5.10" queueing_length_experimental="5.10"/>
            <lane id="-2239_1" queueing_time="14.00" queueing_length="31.56" queueing_length_experimental="39.25"/>
            <lane id="-9069_0" queueing_time="5.00" queueing_length="6.00" queueing_length_experimental="6.00"/>
            <lane id="-9069_1" queueing_time="2.00" queueing_length="6.00" queueing_length_experimental="6.00"/>
            <lane id="9045_0" queueing_time="2.00" queueing_length="6.01" queueing_length_experimental="13.60"/>
            <lane id="9089_0" queueing_time="26.00" queueing_length="25.16" queueing_length_experimental="32.11"/>
        </lanes>
    </data>
    <data timestep="37.00">
        <lanes>
            <lane id=":10281_5_0" queueing_time="5.00" queueing_length="5.10" queueing_length_experimental="5.10"/>
            <lane id="-2239_1" queueing_time="11.00" queueing_length="31.55" queueing_length_experimental="38.68"/>
            <lane id="-9069_0" queueing_time="6.00" queueing_length="6.00" queueing_length_experimental="14.40"/>
            <lane id="-9069_1" queueing_time="3.00" queueing_length="6.00" queueing_length_experimental="6.00"/>
            <lane id="9045_0" queueing_time="3.00" queueing_length="6.00" queueing_length_experimental="12.96"/>
            <lane id="9089_0" queueing_time="27.00" queueing_length="25.16" queueing_length_experimental="31.90"/>
        </lanes>
    </data>
    <data timestep="38.00">
        <lanes>
            <lane id=":10281_5_0" queueing_time="6.00" queueing_length="5.10" queueing_length_experimental="5.10"/>
            <lane id="-2239_1" queueing_time="8.00" queueing_length="31.55" queueing_length_experimental="38.45"/>
            <lane id="-9045_1" queueing_time="0.00" queueing_length="0.00" queueing_length_experimental="8.78"/>
            <lane id="-9069_0" queueing_time="7.00" queueing_length="6.00" queueing_length_experimental="13.61"/>
            <lane id="-9069_1" queueing_time="4.00" queueing_length="6.00" queueing_length_experimental="6.00"/>
            <lane id="9045_0" queueing_time="4.00" queueing_length="6.00" queueing_length_experimental="12.68"/>
            <lane id="9089_0" queueing_time="28.00" queueing_length="25.16" queueing_length_experimental="31.74"/>
        </lanes>
    </data>
    <data timestep="39.00">
        <lanes>
            <lane id=":10281_5_0" queueing_time="7.00" queueing_length="5.10" queueing_length_experimental="5.10"/>
            <lane id="-2239_1" queueing_time="9.00" queueing_length="31.46" queueing_length_experimental="38.18"/>
            <lane id="-9045_1" queueing_time="0.00" queueing_length="0.00" queueing_length_experimental="8.14"/>
            <lane id="-9069_0" queueing_time="8.00" queueing_length="6.00" queueing_length_experimental="12.96"/>
            <lane id="-9069_1" queueing_time="5.00" queueing_length="6.00" queueing_length_experimental="6.00"/>
            <lane id="9045_0" queueing_time="5.00" queueing_length="6.00" queueing_length_experimental="12.57"/>
            <lane id="9089_0" queueing_time="29.00" queueing_length="31.65" queueing_length_experimental="31.65"/>
        </lanes>
    </data>
    <data timestep="40.00">
        <lanes>
            <lane id=":10281_5_0" queueing_time="8.00" queueing_length="5.10" queueing_length_experimental="5.10"/>
            <lane id="-2239_1" queueing_time="0.00" queueing_length="0.00" queueing_length_experimental="38.01"/>
            <lane id="-9045_1" queueing_time="0.00" queueing_length="0.00" queueing_length_experimental="7.84"/>
            <lane id="-9069_0" queueing_time="0.00" queueing_length="0.00" queueing_length_experimental="12.75"/>
            <lane id="9045_0" queueing_time="6.00" queueing_length="12.50" queueing_length_experimental="12.50"/>
            <lane id="9089_0" queueing_time="22.00" queueing_length="31.61" queueing_length_experimental="31.61"/>
        </lanes>
    </data>
    <data timestep="41.00">
        <lanes>
            <lane id=":10281_5_0" queueing_time="9.00" queueing_length="5.10" queueing_length_experimental="5.10"/>
            <lane id="-2239_1" queueing_time="0.00" queueing_length="0.00" queueing_length_experimental="37.72"/>
            <lane id="-9045_1" queueing_time="0.00" queueing_length="0.00" queueing_length_experimental="7.71"/>
            <lane id="9045_0" queueing_time="7.00" queueing_length="12.47" queueing_length_experimental="21.56"/>
            <lane id="9089_0" queueing_time="19.00" queueing_length="31.57" queueing_length_experimental="31.57"/>
        </lanes>
    </data>
    <data timestep="42.00">
        <lanes>
            <lane id=":10281_5_0" queueing_time="10.00" queueing_length="5.10" queueing_length_experimental="5.10"/>
            <lane id=":10301_11_0" queueing_time="0.00" queueing_length="0.00" queueing_length_experimental="5.15"/>
            <lane id="-9045_1" queueing_time="1.00" queueing_length="7.63" queueing_length_experimental="7.63"/>
            <lane id="9045_0" queueing_time="3.00" queueing_length="12.43" queueing_length_experimental="20.22"/>
            <lane id="9089_0" queueing_time="15.00" queueing_length="31.56" queueing_length_experimental="31.56"/>
        </lanes>
    </data>
    <data timestep="43.00">
        <lanes>
            <lane id=":10281_5_0" queueing_time="11.00" queueing_length="5.10" queueing_length_experimental="5.10"/>
            <lane id=":10301_11_0" queueing_time="1.00" queueing_length="5.11" queueing_length_experimental="5.11"/>
            <lane id="-9045_1" queueing_time="2.00" queueing_length="7.60" queueing_length_experimental="7.60"/>
            <lane id="9045_0" queueing_time="0.00" queueing_length="0.00" queueing_length_experimental="19.59"/>
            <lane id="9089_0" queueing_time="5.00" queueing_length="31.56" queueing_length_experimental="31.56"/>
        </lanes>
    </data>
    <data timestep="44.00">
        <lanes>
            <lane id=":10281_5_0" queueing_time="12.00" queueing_length="5.10" queueing_length_experimental="5.10"/>
            <lane id=":10301_11_0" queueing_time="2.00" queueing_length="5.10" queueing_length_experimental="5.10"/>
            <lane id="-9045_1" queueing_time="3.00" queueing_length="7.59" queueing_length_experimental="7.59"/>
            <lane id="9089_0" queueing_time="6.00" queueing_length="31.46" queueing_length_experimental="31.46"/>
        </lanes>
    </data>
    <data timestep="45.00">
        <lanes>
            <lane id=":10281_5_0" queueing_time="13.00" queueing_length="5.10" queueing_length_experimental="5.10"/>
            <lane id=":10301_11_0" queueing_time="3.00" queueing_length="5.10" queueing_length_experimental="5.10"/>
            <lane id="-9045_1" queueing_time="4.00" queueing_length="7.58" queueing_length_experimental="7.58"/>
            <lane id="9089_0" queueing_time="0.00" queueing_length="0.00" queueing_length_experimental="40.40"/>
        </lanes>
    </data>
    <data timestep="46.00">
        <lanes>
            <lane id=":10281_5_0" queueing_time="14.00" queueing_length="5.10" queueing_length_experimental="5.10"/>
            <lane id=":10301_11_0" queueing_time="4.00" queueing_length="5.10" queueing_length_experimental="5.10"/>
            <lane id="-9045_1" queueing_time="5.00" queueing_length="7.57" queueing_length_experimental="7.57"/>
            <lane id="9089_0" queueing_time="0.00" queueing_length="0.00" queueing_length_experimental="39.23"/>
        </lanes>
    </data>
    <data timestep="47.00">
        <lanes>
            <lane id=":10281_5_0" queueing_time="15.00" queueing_length="5.10" queueing_length_experimental="5.10"/>
            <lane id=":10301_11_0" queueing_time="5.00" queueing_length="5.10" queueing_length_experimental="5.10"/>
            <lane id="-9045_1" queueing_time="6.00" queueing_length="7.57" queueing_length_experimental="7.57"/>
            <lane id="9089_0" queueing_time="0.00" queueing_length="0.00" queueing_length_experimental="37.97"/>
        </lanes>
    </data>
    <data timestep="48.00">
        <lanes>
            <lane id=":10281_5_0" queueing_time="16.00" queueing_length="5.10" queueing_length_experimental="5.10"/>
            <lane id=":10301_11_0" queueing_time="6.00" queueing_length="5.10" queueing_length_experimental="5.10"/>
            <lane id="-9045_1" queueing_time="7.00" queueing_length="7.57" queueing_length_experimental="7.57"/>
        </lanes>
    </data>
    <data timestep="49.00">
        <lanes>
            <lane id=":10281_5_0" queueing_time="17.00" queueing_length="5.10" queueing_length_experimental="5.10"/>
            <lane id=":10301_11_0" queueing_time="7.00" queueing_length="5.10" queueing_length_experimental="5.10"/>
            <lane id="-2239_1" queueing_time="0.00" queueing_length="0.00" queueing_length_experimental="6.07"/>
            <lane id="-9045_1" queueing_time="8.00" queueing_length="7.57" queueing_length_experimental="7.57"/>
        </lanes>
    </data>
    <data timestep="50.00">
        <lanes>
            <lane id=":10281_5_0" queueing_time="18.00" queueing_length="5.10" queueing_length_experimental="5.10"/>
            <lane id=":10301_11_0" queueing_time="8.00" queueing_length="5.10" queueing_length_experimental="5.10"/>
            <lane id="-2239_1" queueing_time="1.00" queueing_length="6.00" queueing_length_experimental="6.00"/>
            <lane id="-9045_1" queueing_time="9.00" queueing_length="7.57" queueing_length_experimental="7.57"/>
            <lane id="-9069_1" queueing_time="0.00" queueing_length="0.00" queueing_length_experimental="7.01"/>
        </lanes>
    </data>
    <data timestep="51.00">
        <lanes>
            <lane id=":10301_11_0" queueing_time="9.00" queueing_length="5.10" queueing_length_experimental="5.10"/>
            <lane id="-2239_1" queueing_time="2.00" queueing_length="6.00" queueing_length_experimental="6.00"/>
            <lane id="-9045_1" queueing_time="10.00" queueing_length="7.57" queueing_length_experimental="7.57"/>
            <lane id="-9069_1" queueing_time="0.00" queueing_length="0.00" queueing_length_experimental="6.56"/>
        </lanes>
    </data>
    <data timestep="52.00">
        <lanes>
            <lane id=":10301_11_0" queueing_time="10.00" queueing_length="5.10" queueing_length_experimental="5.10"/>
            <lane id="-2239_1" queueing_time="3.00" queueing_length="6.00" queueing_length_experimental="13.66"/>
            <lane id="-9045_1" queueing_time="0.00" queueing_length="0.00" queueing_length_experimental="15.15"/>
            <lane id="-9069_1" queueing_time="0.00" queueing_length="0.00" queueing_length_experimental="6.38"/>
        </lanes>
    </data>
    <data timestep="53.00">
        <lanes>
            <lane id=":10301_11_0" queueing_time="11.00" queueing_length="5.10" queueing_length_experimental="5.10"/>
            <lane id="-2239_1" queueing_time="4.00" queueing_length="6.00" queueing_length_experimental="13.24"/>
            <lane id="-9069_1" queueing_time="0.00" queueing_length="0.00" queueing_length_experimental="6.24"/>
        </lanes>
    </data>
    <data timestep="54.00">
        <lanes>
            <lane id=":10301_11_0" queueing_time="12.00" queueing_length="5.10" queueing_length_experimental="5.10"/>
            <lane id="-2239_1" queueing_time="5.00" queueing_length="6.00" queueing_length_experimental="12.89"/>